/*--------------------------------*- C++ -*----------------------------------*\
| =========                 |                                                 |
| \\      /  F ield         | OpenFOAM: The Open Source CFD Toolbox           |
|  \\    /   O peration     | Version:  2412                                  |
|   \\  /    A nd           | Website:  www.openfoam.com                      |
|    \\/     M anipulation  |                                                 |
\*---------------------------------------------------------------------------*/
FoamFile
{
    version     2.0;
    format      ascii;
    arch        "LSB;label=32;scalar=64";
    class       volScalarField;
    location    "0/leftFluid";
    object      eCharge;
}
// * * * * * * * * * * * * * * * * * * * * * * * * * * * * * * * * * * * * * //

dimensions      [ 0 -3 1 0 0 1 0 ];

internalField   uniform 0;

boundaryField
{
    backFront
    {
        type            empty;
    }
    bottom
    {
        type            zeroGradient;
        value           nonuniform List<scalar> 0();
    }
    top
    {
        type            zeroGradient;
        value           uniform 0;
    }
    left
    {
        type            zeroGradient;
        value           uniform 0;
    }
    leftFluid_to_rightSolid
    {
        type            zeroGradient;
        value           uniform 0;
    }
    procBoundary0to1
    {
        type            processor;
        value           uniform 0;
    }
    procBoundary0to3
    {
        type            processor;
        value           uniform 0;
    }
}


// ************************************************************************* //
