/*--------------------------------*- C++ -*----------------------------------*\
| =========                 |                                                 |
| \\      /  F ield         | OpenFOAM: The Open Source CFD Toolbox           |
|  \\    /   O peration     | Version:  2412                                  |
|   \\  /    A nd           | Website:  www.openfoam.com                      |
|    \\/     M anipulation  |                                                 |
\*---------------------------------------------------------------------------*/
FoamFile
{
    version     2.0;
    format      ascii;
    arch        "LSB;label=32;scalar=64";
    class       volScalarField;
    location    "1/rightSolid";
    object      surfCharge;
}
// * * * * * * * * * * * * * * * * * * * * * * * * * * * * * * * * * * * * * //

dimensions      [0 -2 1 0 0 1 0];

internalField   uniform 0;

boundaryField
{
    bottomTopBackFront
    {
        type            empty;
    }
    right
    {
        type            zeroGradient;
    }
    rightSolid_to_leftFluid
    {
        type            zeroGradient;
    }
}


// ************************************************************************* //
